LAMMPS (29 Oct 2020)
######################################
# LAMMPS INPUT SCRIPT
# Find minimum energy fcc (face-centered cubic) atomic configuration
# Mark Tschopp
# Syntax, lmp_exe < calc_fcc.in

######################################
# INITIALIZATION
clear
kim init LJ_ElliottAkerson_2015_Universal__MO_959249795837_003 metal
ERROR: Unknown command: kim init LJ_ElliottAkerson_2015_Universal__MO_959249795837_003 metal (../input.cpp:264)
Last command: kim init LJ_ElliottAkerson_2015_Universal__MO_959249795837_003 metal
