LAMMPS (29 Oct 2020)
######################################
# LAMMPS INPUT SCRIPT
# Find minimum energy fcc (face-centered cubic) atomic configuration
# Mark Tschopp
# Syntax, lmp_exe < calc_fcc.in

######################################
# INITIALIZATION
clear
kim          init Sim_LAMMPS_MEAM_PascuetFernandez_2015_Al__SM_811588957187_000 metal
ERROR: Unknown command: kim          init Sim_LAMMPS_MEAM_PascuetFernandez_2015_Al__SM_811588957187_000 metal (../input.cpp:264)
Last command: kim          init Sim_LAMMPS_MEAM_PascuetFernandez_2015_Al__SM_811588957187_000 metal
